test_output.lammps - created by mBuild

14 atoms
12 bonds
13 angles
5 dihedrals
0 impropers

8 atom types
8 bond types
10 angle types
4 dihedral types

0.000000 8.700000 xlo xhi
0.000000 30.200000 ylo yhi
0.000000 55.000000 zlo zhi

Masses

1	1.000000	# BBA
5	0.150000	# HBA
2	1.000000	# BBC
6	0.150000	# HBC
3	1.000000	# BBG
7	0.150000	# HBG
4	1.000000	# BBT
8	0.150000	# HBT

Pair Coeffs # lj 
#	epsilon (kcal/mol)		sigma (Angstrom)
1	0.00000		0.00000		# BBA
5	0.00000		0.00000		# HBA
2	0.00000		0.00000		# BBC
6	0.00000		0.00000		# HBC
3	0.00000		0.00000		# BBG
7	0.00000		0.00000		# HBG
4	0.00000		0.00000		# BBT
8	0.00000		0.00000		# HBT

Bond Coeffs # harmonic
#	k(kcal/mol/angstrom^2)		req(angstrom)
1	1.195		8.4		# BBA	BBC
2	1.195		8.4		# BBG	BBT
3	1.195		8.4		# BBA	BBT
4	1.195		3.7		# BBG	HBG
5	1.195		3.7		# BBC	HBC
6	1.195		3.7		# BBA	HBA
7	1.195		3.7		# BBT	HBT
8	1.195		8.4		# BBA	BBA

Angle Coeffs # harmonic
#	k(kcal/mol/rad^2)		theteq(deg)
1	35.851		89.95400	# BBA	BBT	HBT
2	35.851		89.95400	# BBA	BBC	HBC
3	3.585		179.90900	# BBA	BBT	BBG
4	3.585		179.90900	# BBC	BBA	BBT
5	35.851		89.95400	# BBG	BBT	HBT
6	35.851		89.95400	# BBC	BBA	HBA
7	35.851		89.95400	# BBT	BBA	HBA
8	35.851		89.95400	# BBA	BBA	HBA
9	35.851		89.95400	# BBT	BBG	HBG
10	3.585		179.90900	# BBA	BBA	BBC

Dihedral Coeffs # charmm
#k, n, phi, weight
1	0.71700	1	0	1.00000	# HBT	BBT	BBA	HBA
2	2.15100	1	0	1.00000	# HBA	BBA	BBA	HBA
3	1.43400	1	0	1.00000	# HBG	BBG	BBT	HBT
4	1.43400	1	0	1.00000	# HBA	BBA	BBC	HBC

Atoms

1	0	1	-1.850000	8.400000	-0.000000
2	0	5	1.850000	8.400000	-0.000000
3	0	1	-1.850000	0.000000	-0.000000
4	0	5	1.850000	0.000000	-0.000000
5	0	2	-1.850000	-8.400000	0.000000
6	0	6	1.850000	-8.400000	0.000000
7	0	3	-1.850000	12.600000	50.000000
8	0	7	1.850000	12.600000	50.000000
9	0	4	-1.850000	4.200000	50.000000
10	0	8	1.850000	4.200000	50.000000
11	0	1	-1.850000	-4.200000	50.000000
12	0	5	1.850000	-4.200000	50.000000
13	0	2	-1.850000	-12.600000	50.000000
14	0	6	1.850000	-12.600000	50.000000

Bonds

1	8	1	3
2	6	1	2
3	1	3	5
4	6	4	3
5	5	6	5
6	4	8	7
7	7	9	10
8	2	9	7
9	6	11	12
10	3	11	9
11	1	11	13
12	5	13	14

Angles

1	8	1	3	4
2	10	1	3	5
3	8	2	1	3
4	2	3	5	6
5	6	4	3	5
6	5	7	9	10
7	3	7	9	11
8	9	8	7	9
9	7	9	11	12
10	4	9	11	13
11	1	10	9	11
12	2	11	13	14
13	6	12	11	13

Dihedrals

1	2	2	1	3	4
2	4	4	3	5	6
3	3	8	7	9	10
4	1	10	9	11	12
5	4	12	11	13	14
